(written by ASE)

1618 atoms
6 atom types

0.0      52.399999999999999  xlo xhi
0.0      52.399999999999999  ylo yhi
0.0      52.399999999999999  zlo zhi

Atoms # atomic

     1   2              10.4103086      19.024421400000001      13.398292141131105
     2   2              19.4244214      10.010308599999998        23.0432109411311
     3   2              15.6995814      24.944500199999997      8.1090193411311056
     4   2      25.344500199999999      15.299581399999999      17.123132141131105
     5   2      25.344500199999999      19.024421400000001      8.1090193411311056
     6   2              10.4103086      15.299581399999999        23.0432109411311
     7   2              19.4244214      24.944500199999997      13.398292141131105
     8   2              19.4244214      15.299581399999999      8.1090193411311056
     9   2              10.4103086      24.944500199999997      17.123132141131105
    10   2      25.344500199999999      10.010308599999998      13.398292141131105
    11   2              15.6995814      19.024421400000001        23.0432109411311
    12   2              19.4244214      10.010308599999998      13.398292141131105
    13   2              10.4103086      19.024421400000001        23.0432109411311
    14   2      25.344500199999999      15.299581399999999      8.1090193411311056
    15   2              15.6995814      24.944500199999997      17.123132141131105
    16   2              10.4103086      15.299581399999999      17.123132141131105
    17   2              19.4244214      24.944500199999997      8.1090193411311056
    18   2              15.6995814      10.010308599999998        23.0432109411311
    19   2      25.344500199999999      19.024421400000001      13.398292141131105
    20   2              15.6995814      19.024421400000001      8.1090193411311056
    21   2      25.344500199999999      10.010308599999998      17.123132141131105
    22   2              10.4103086      24.944500199999997      13.398292141131105
    23   2              19.4244214      15.299581399999999        23.0432109411311
    24   2      26.300111399999999              25.9001114      10.877209341131104
    25   2      26.300111399999999              25.9001114      23.998822141131107
    26   2      13.178498599999999              25.9001114      23.998822141131107
    27   2      26.300111399999999      12.778498599999999      23.998822141131107
    28   2      15.911581399999999      10.010308599999998      17.547132141131105
    29   2              15.4875814      10.010308599999998      16.699132141131102
    30   3              15.6995814      10.010308599999998      17.123132141131105
    31   1      9.0698538000000006      18.161899399999999      14.242942541131104
    32   1      18.561899400000001      8.6698537999999985      24.401558541131102
    33   1      16.544231799999999      26.302847799999999      6.7685645411311048
    34   1      26.702847800000001              16.1442318      16.260610141131103
    35   1      16.544231799999999      8.6698537999999985      16.260610141131103
    36   1      26.702847800000001      18.161899399999999      6.7685645411311048
    37   1      9.0698538000000006              16.1442318      24.401558541131102
    38   1      18.561899400000001      26.302847799999999      14.242942541131104
    39   1      18.561899400000001              16.1442318      6.7685645411311048
    40   1      9.0698538000000006      26.302847799999999      16.260610141131103
    41   1      26.702847800000001      8.6698537999999985      14.242942541131104
    42   1      16.544231799999999      18.161899399999999      24.401558541131102
    43   1      18.561899400000001      8.6698537999999985      14.242942541131104
    44   1      9.0698538000000006      18.161899399999999      24.401558541131102
    45   1      26.702847800000001              16.1442318      6.7685645411311048
    46   1      16.544231799999999      26.302847799999999      16.260610141131103
    47   1      9.0698538000000006              16.1442318      16.260610141131103
    48   1      18.561899400000001      26.302847799999999      6.7685645411311048
    49   1      16.544231799999999      8.6698537999999985      24.401558541131102
    50   1      26.702847800000001      18.161899399999999      14.242942541131104
    51   1      16.544231799999999      18.161899399999999      6.7685645411311048
    52   1      26.702847800000001      8.6698537999999985      16.260610141131103
    53   1      9.0698538000000006      26.302847799999999      14.242942541131104
    54   1      18.561899400000001              16.1442318      24.401558541131102
    55   1      13.478966199999999      6.8157229999999993      4.9144337411311048
    56   1      7.2157229999999997              13.0789662      19.467131341131104
    57   1      7.2157229999999997              21.3684206      11.177676941131104
    58   1      21.768420599999999      6.8157229999999993      4.9144337411311048
    59   1      7.2157229999999997              13.0789662      4.9144337411311048
    60   1      21.768420599999999      6.8157229999999993      11.177676941131104
    61   1      13.478966199999999      6.8157229999999993      19.467131341131104
    62   1      7.2157229999999997              21.3684206      4.9144337411311048
    63   1      7.2157229999999997      6.8157229999999993      11.177676941131104
    64   1      13.478966199999999              21.3684206      4.9144337411311048
    65   1      21.768420599999999              13.0789662      4.9144337411311048
    66   1      7.2157229999999997      6.8157229999999993      19.467131341131104
    67   1      7.2768214000000002      19.160292200000001      13.263608541131104
    68   1      19.560292199999999      6.8768213999999999      4.9755321411311053
    69   1      15.564897799999999      6.8768213999999999      4.9755321411311053
    70   1      7.2768214000000002      15.164897799999999      17.259002941131104
    71   1      15.564897799999999      6.8768213999999999      17.259002941131104
    72   1      7.2768214000000002      19.160292200000001      4.9755321411311053
    73   1      7.2768214000000002      15.164897799999999      4.9755321411311053
    74   1      19.560292199999999      6.8768213999999999      13.263608541131104
    75   1      19.560292199999999      15.164897799999999      4.9755321411311053
    76   1      7.2768214000000002      6.8768213999999999      17.259002941131104
    77   1      7.2768214000000002      6.8768213999999999      13.263608541131104
    78   1      15.564897799999999      19.160292200000001      4.9755321411311053
    79   5      8.8386466000000006      22.238065800000001      10.383779341131104
    80   5              22.6380658      8.4386465999999984      24.415762541131102
    81   5      12.685068599999999      26.317051799999998      6.5373573411311048
    82   5              26.7170518      12.285068599999999      20.336776541131105
    83   5      12.685068599999999      8.4386465999999984      20.336776541131105
    84   5              26.7170518      22.238065800000001      6.5373573411311048
    85   5      8.8386466000000006      12.285068599999999      24.415762541131102
    86   5              22.6380658      26.317051799999998      10.383779341131104
    87   5              22.6380658      12.285068599999999      6.5373573411311048
    88   5      8.8386466000000006      26.317051799999998      20.336776541131105
    89   5              26.7170518      8.4386465999999984      10.383779341131104
    90   5      12.685068599999999      22.238065800000001      24.415762541131102
    91   5              22.6380658      8.4386465999999984      10.383779341131104
    92   5      8.8386466000000006      22.238065800000001      24.415762541131102
    93   5              26.7170518      12.285068599999999      6.5373573411311048
    94   5      12.685068599999999      26.317051799999998      20.336776541131105
    95   5      8.8386466000000006      12.285068599999999      20.336776541131105
    96   5              22.6380658      26.317051799999998      6.5373573411311048
    97   5      12.685068599999999      8.4386465999999984      24.415762541131102
    98   5              26.7170518      22.238065800000001      10.383779341131104
    99   5      12.685068599999999      22.238065800000001      6.5373573411311048
   100   5              26.7170518      8.4386465999999984      20.336776541131105
   101   5      8.8386466000000006      26.317051799999998      10.383779341131104
   102   5              22.6380658      12.285068599999999      24.415762541131102
   103   5      11.437936199999999              26.4802918      24.579002541131103
   104   5      26.880291800000002      11.037936200000001      24.579002541131103
   105   5      26.880291800000002              26.4802918      9.1366469411311044
   106   5      26.880291800000002              26.4802918      24.579002541131103
   107   5      25.071401799999997      7.8024769999999997      5.9011877411311051
   108   5                8.202477      24.671401799999998      5.9011877411311051
   109   5                8.202477      7.8024769999999997      22.770112541131105
   110   5                8.202477      7.8024769999999997      5.9011877411311051
   111   6      9.6797354000000002      25.359680999999998      7.3784461411311053
   112   6               25.759681      9.2797353999999999      23.458391741131102
   113   6      9.6797354000000002      9.2797353999999999      23.458391741131102
   114   6               25.759681      25.359680999999998      7.3784461411311053
   115   6               25.759681      9.2797353999999999      7.3784461411311053
   116   6      9.6797354000000002      25.359680999999998      23.458391741131102
   117   2              10.4103086      19.024421400000001      34.598292141131104
   118   2              19.4244214      10.010308599999998      44.243210941131103
   119   2              15.6995814      24.944500199999997      29.309019341131105
   120   2      25.344500199999999      15.299581399999999      38.323132141131104
   121   2      25.344500199999999      19.024421400000001      29.309019341131105
   122   2              10.4103086      15.299581399999999      44.243210941131103
   123   2              19.4244214      24.944500199999997      34.598292141131104
   124   2              19.4244214      15.299581399999999      29.309019341131105
   125   2              10.4103086      24.944500199999997      38.323132141131104
   126   2      25.344500199999999      10.010308599999998      34.598292141131104
   127   2              15.6995814      19.024421400000001      44.243210941131103
   128   2              19.4244214      10.010308599999998      34.598292141131104
   129   2              10.4103086      19.024421400000001      44.243210941131103
   130   2      25.344500199999999      15.299581399999999      29.309019341131105
   131   2              15.6995814      24.944500199999997      38.323132141131104
   132   2              10.4103086      15.299581399999999      38.323132141131104
   133   2              19.4244214      24.944500199999997      29.309019341131105
   134   2              15.6995814      10.010308599999998      44.243210941131103
   135   2      25.344500199999999      19.024421400000001      34.598292141131104
   136   2              15.6995814      19.024421400000001      29.309019341131105
   137   2      25.344500199999999      10.010308599999998      38.323132141131104
   138   2              10.4103086      24.944500199999997      34.598292141131104
   139   2              19.4244214      15.299581399999999      44.243210941131103
   140   2      26.300111399999999              25.9001114      32.077209341131102
   141   2      26.300111399999999              25.9001114       45.19882214113111
   142   2      13.178498599999999              25.9001114       45.19882214113111
   143   2      26.300111399999999      12.778498599999999       45.19882214113111
   144   2      15.911581399999999      10.010308599999998      38.747132141131104
   145   2              15.4875814      10.010308599999998      37.899132141131105
   146   3              15.6995814      10.010308599999998      38.323132141131104
   147   1      9.0698538000000006      18.161899399999999      35.442942541131103
   148   1      18.561899400000001      8.6698537999999985      45.601558541131105
   149   1      16.544231799999999      26.302847799999999      27.968564541131101
   150   1      26.702847800000001              16.1442318      37.460610141131106
   151   1      16.544231799999999      8.6698537999999985      37.460610141131106
   152   1      26.702847800000001      18.161899399999999      27.968564541131101
   153   1      9.0698538000000006              16.1442318      45.601558541131105
   154   1      18.561899400000001      26.302847799999999      35.442942541131103
   155   1      18.561899400000001              16.1442318      27.968564541131101
   156   1      9.0698538000000006      26.302847799999999      37.460610141131106
   157   1      26.702847800000001      8.6698537999999985      35.442942541131103
   158   1      16.544231799999999      18.161899399999999      45.601558541131105
   159   1      18.561899400000001      8.6698537999999985      35.442942541131103
   160   1      9.0698538000000006      18.161899399999999      45.601558541131105
   161   1      26.702847800000001              16.1442318      27.968564541131101
   162   1      16.544231799999999      26.302847799999999      37.460610141131106
   163   1      9.0698538000000006              16.1442318      37.460610141131106
   164   1      18.561899400000001      26.302847799999999      27.968564541131101
   165   1      16.544231799999999      8.6698537999999985      45.601558541131105
   166   1      26.702847800000001      18.161899399999999      35.442942541131103
   167   1      16.544231799999999      18.161899399999999      27.968564541131101
   168   1      26.702847800000001      8.6698537999999985      37.460610141131106
   169   1      9.0698538000000006      26.302847799999999      35.442942541131103
   170   1      18.561899400000001              16.1442318      45.601558541131105
   171   1      13.478966199999999      6.8157229999999993      26.114433741131101
   172   1      7.2157229999999997              13.0789662      40.667131341131103
   173   1      7.2157229999999997              21.3684206      32.377676941131107
   174   1      21.768420599999999      6.8157229999999993      26.114433741131101
   175   1      7.2157229999999997              13.0789662      26.114433741131101
   176   1      21.768420599999999      6.8157229999999993      32.377676941131107
   177   1      13.478966199999999      6.8157229999999993      40.667131341131103
   178   1      7.2157229999999997              21.3684206      26.114433741131101
   179   1      7.2157229999999997      6.8157229999999993      32.377676941131107
   180   1      13.478966199999999              21.3684206      26.114433741131101
   181   1      21.768420599999999              13.0789662      26.114433741131101
   182   1      7.2157229999999997      6.8157229999999993      40.667131341131103
   183   1      7.2768214000000002      19.160292200000001      34.463608541131102
   184   1      19.560292199999999      6.8768213999999999      26.175532141131107
   185   1      15.564897799999999      6.8768213999999999      26.175532141131107
   186   1      7.2768214000000002      15.164897799999999      38.459002941131104
   187   1      15.564897799999999      6.8768213999999999      38.459002941131104
   188   1      7.2768214000000002      19.160292200000001      26.175532141131107
   189   1      7.2768214000000002      15.164897799999999      26.175532141131107
   190   1      19.560292199999999      6.8768213999999999      34.463608541131102
   191   1      19.560292199999999      15.164897799999999      26.175532141131107
   192   1      7.2768214000000002      6.8768213999999999      38.459002941131104
   193   1      7.2768214000000002      6.8768213999999999      34.463608541131102
   194   1      15.564897799999999      19.160292200000001      26.175532141131107
   195   5      8.8386466000000006      22.238065800000001      31.583779341131105
   196   5              22.6380658      8.4386465999999984      45.615762541131105
   197   5      12.685068599999999      26.317051799999998      27.737357341131109
   198   5              26.7170518      12.285068599999999      41.536776541131104
   199   5      12.685068599999999      8.4386465999999984      41.536776541131104
   200   5              26.7170518      22.238065800000001      27.737357341131109
   201   5      8.8386466000000006      12.285068599999999      45.615762541131105
   202   5              22.6380658      26.317051799999998      31.583779341131105
   203   5              22.6380658      12.285068599999999      27.737357341131109
   204   5      8.8386466000000006      26.317051799999998      41.536776541131104
   205   5              26.7170518      8.4386465999999984      31.583779341131105
   206   5      12.685068599999999      22.238065800000001      45.615762541131105
   207   5              22.6380658      8.4386465999999984      31.583779341131105
   208   5      8.8386466000000006      22.238065800000001      45.615762541131105
   209   5              26.7170518      12.285068599999999      27.737357341131109
   210   5      12.685068599999999      26.317051799999998      41.536776541131104
   211   5      8.8386466000000006      12.285068599999999      41.536776541131104
   212   5              22.6380658      26.317051799999998      27.737357341131109
   213   5      12.685068599999999      8.4386465999999984      45.615762541131105
   214   5              26.7170518      22.238065800000001      31.583779341131105
   215   5      12.685068599999999      22.238065800000001      27.737357341131109
   216   5              26.7170518      8.4386465999999984      41.536776541131104
   217   5      8.8386466000000006      26.317051799999998      31.583779341131105
   218   5              22.6380658      12.285068599999999      45.615762541131105
   219   5      11.437936199999999              26.4802918      45.779002541131106
   220   5      26.880291800000002      11.037936200000001      45.779002541131106
   221   5      26.880291800000002              26.4802918      30.336646941131107
   222   5      26.880291800000002              26.4802918      45.779002541131106
   223   5      25.071401799999997      7.8024769999999997      27.101187741131106
   224   5                8.202477      24.671401799999998      27.101187741131106
   225   5                8.202477      7.8024769999999997      43.970112541131108
   226   5                8.202477      7.8024769999999997      27.101187741131106
   227   6      9.6797354000000002      25.359680999999998      28.578446141131103
   228   6               25.759681      9.2797353999999999      44.658391741131105
   229   6      9.6797354000000002      9.2797353999999999      44.658391741131105
   230   6               25.759681      25.359680999999998      28.578446141131103
   231   6               25.759681      9.2797353999999999      28.578446141131103
   232   6      9.6797354000000002      25.359680999999998      44.658391741131105
   233   2              10.4103086      40.224421399999997      13.398292141131105
   234   2              19.4244214      31.210308599999998        23.0432109411311
   235   2              15.6995814      46.144500199999996      8.1090193411311056
   236   2      25.344500199999999      36.499581399999997      17.123132141131105
   237   2      25.344500199999999      40.224421399999997      8.1090193411311056
   238   2              10.4103086      36.499581399999997        23.0432109411311
   239   2              19.4244214      46.144500199999996      13.398292141131105
   240   2              19.4244214      36.499581399999997      8.1090193411311056
   241   2              10.4103086      46.144500199999996      17.123132141131105
   242   2      25.344500199999999      31.210308599999998      13.398292141131105
   243   2              15.6995814      40.224421399999997        23.0432109411311
   244   2              19.4244214      31.210308599999998      13.398292141131105
   245   2              10.4103086      40.224421399999997        23.0432109411311
   246   2      25.344500199999999      36.499581399999997      8.1090193411311056
   247   2              15.6995814      46.144500199999996      17.123132141131105
   248   2              10.4103086      36.499581399999997      17.123132141131105
   249   2              19.4244214      46.144500199999996      8.1090193411311056
   250   2              15.6995814      31.210308599999998        23.0432109411311
   251   2      25.344500199999999      40.224421399999997      13.398292141131105
   252   2              15.6995814      40.224421399999997      8.1090193411311056
   253   2      25.344500199999999      31.210308599999998      17.123132141131105
   254   2              10.4103086      46.144500199999996      13.398292141131105
   255   2              19.4244214      36.499581399999997        23.0432109411311
   256   2      26.300111399999999      47.100111400000003      10.877209341131104
   257   2      26.300111399999999      47.100111400000003      23.998822141131107
   258   2      13.178498599999999      47.100111400000003      23.998822141131107
   259   2      26.300111399999999      33.978498599999995      23.998822141131107
   260   2      15.911581399999999      31.210308599999998      17.547132141131105
   261   2              15.4875814      31.210308599999998      16.699132141131102
   262   3              15.6995814      31.210308599999998      17.123132141131105
   263   1      9.0698538000000006      39.361899399999999      14.242942541131104
   264   1      18.561899400000001      29.869853799999998      24.401558541131102
   265   1      16.544231799999999      47.502847799999998      6.7685645411311048
   266   1      26.702847800000001      37.344231800000003      16.260610141131103
   267   1      16.544231799999999      29.869853799999998      16.260610141131103
   268   1      26.702847800000001      39.361899399999999      6.7685645411311048
   269   1      9.0698538000000006      37.344231800000003      24.401558541131102
   270   1      18.561899400000001      47.502847799999998      14.242942541131104
   271   1      18.561899400000001      37.344231800000003      6.7685645411311048
   272   1      9.0698538000000006      47.502847799999998      16.260610141131103
   273   1      26.702847800000001      29.869853799999998      14.242942541131104
   274   1      16.544231799999999      39.361899399999999      24.401558541131102
   275   1      18.561899400000001      29.869853799999998      14.242942541131104
   276   1      9.0698538000000006      39.361899399999999      24.401558541131102
   277   1      26.702847800000001      37.344231800000003      6.7685645411311048
   278   1      16.544231799999999      47.502847799999998      16.260610141131103
   279   1      9.0698538000000006      37.344231800000003      16.260610141131103
   280   1      18.561899400000001      47.502847799999998      6.7685645411311048
   281   1      16.544231799999999      29.869853799999998      24.401558541131102
   282   1      26.702847800000001      39.361899399999999      14.242942541131104
   283   1      16.544231799999999      39.361899399999999      6.7685645411311048
   284   1      26.702847800000001      29.869853799999998      16.260610141131103
   285   1      9.0698538000000006      47.502847799999998      14.242942541131104
   286   1      18.561899400000001      37.344231800000003      24.401558541131102
   287   1      13.478966199999999      28.015722999999998      4.9144337411311048
   288   1      7.2157229999999997      34.278966199999999      19.467131341131104
   289   1      7.2157229999999997      42.568420599999996      11.177676941131104
   290   1      21.768420599999999      28.015722999999998      4.9144337411311048
   291   1      7.2157229999999997      34.278966199999999      4.9144337411311048
   292   1      21.768420599999999      28.015722999999998      11.177676941131104
   293   1      13.478966199999999      28.015722999999998      19.467131341131104
   294   1      7.2157229999999997      42.568420599999996      4.9144337411311048
   295   1      7.2157229999999997      28.015722999999998      11.177676941131104
   296   1      13.478966199999999      42.568420599999996      4.9144337411311048
   297   1      21.768420599999999      34.278966199999999      4.9144337411311048
   298   1      7.2157229999999997      28.015722999999998      19.467131341131104
   299   1      7.2768214000000002      40.360292199999996      13.263608541131104
   300   1      19.560292199999999              28.0768214      4.9755321411311053
   301   1      15.564897799999999              28.0768214      4.9755321411311053
   302   1      7.2768214000000002      36.364897799999994      17.259002941131104
   303   1      15.564897799999999              28.0768214      17.259002941131104
   304   1      7.2768214000000002      40.360292199999996      4.9755321411311053
   305   1      7.2768214000000002      36.364897799999994      4.9755321411311053
   306   1      19.560292199999999              28.0768214      13.263608541131104
   307   1      19.560292199999999      36.364897799999994      4.9755321411311053
   308   1      7.2768214000000002              28.0768214      17.259002941131104
   309   1      7.2768214000000002              28.0768214      13.263608541131104
   310   1      15.564897799999999      40.360292199999996      4.9755321411311053
   311   5      8.8386466000000006      43.438065799999997      10.383779341131104
   312   5              22.6380658      29.638646600000001      24.415762541131102
   313   5      12.685068599999999      47.517051799999997      6.5373573411311048
   314   5              26.7170518      33.485068600000005      20.336776541131105
   315   5      12.685068599999999      29.638646600000001      20.336776541131105
   316   5              26.7170518      43.438065799999997      6.5373573411311048
   317   5      8.8386466000000006      33.485068600000005      24.415762541131102
   318   5              22.6380658      47.517051799999997      10.383779341131104
   319   5              22.6380658      33.485068600000005      6.5373573411311048
   320   5      8.8386466000000006      47.517051799999997      20.336776541131105
   321   5              26.7170518      29.638646600000001      10.383779341131104
   322   5      12.685068599999999      43.438065799999997      24.415762541131102
   323   5              22.6380658      29.638646600000001      10.383779341131104
   324   5      8.8386466000000006      43.438065799999997      24.415762541131102
   325   5              26.7170518      33.485068600000005      6.5373573411311048
   326   5      12.685068599999999      47.517051799999997      20.336776541131105
   327   5      8.8386466000000006      33.485068600000005      20.336776541131105
   328   5              22.6380658      47.517051799999997      6.5373573411311048
   329   5      12.685068599999999      29.638646600000001      24.415762541131102
   330   5              26.7170518      43.438065799999997      10.383779341131104
   331   5      12.685068599999999      43.438065799999997      6.5373573411311048
   332   5              26.7170518      29.638646600000001      20.336776541131105
   333   5      8.8386466000000006      47.517051799999997      10.383779341131104
   334   5              22.6380658      33.485068600000005      24.415762541131102
   335   5      11.437936199999999      47.680291799999999      24.579002541131103
   336   5      26.880291800000002              32.2379362      24.579002541131103
   337   5      26.880291800000002      47.680291799999999      9.1366469411311044
   338   5      26.880291800000002      47.680291799999999      24.579002541131103
   339   5      25.071401799999997      29.002476999999999      5.9011877411311051
   340   5                8.202477      45.871401800000001      5.9011877411311051
   341   5                8.202477      29.002476999999999      22.770112541131105
   342   5                8.202477      29.002476999999999      5.9011877411311051
   343   6      9.6797354000000002      46.559680999999998      7.3784461411311053
   344   6               25.759681      30.479735399999999      23.458391741131102
   345   6      9.6797354000000002      30.479735399999999      23.458391741131102
   346   6               25.759681      46.559680999999998      7.3784461411311053
   347   6               25.759681      30.479735399999999      7.3784461411311053
   348   6      9.6797354000000002      46.559680999999998      23.458391741131102
   349   2              10.4103086      40.224421399999997      34.598292141131104
   350   2              19.4244214      31.210308599999998      44.243210941131103
   351   2              15.6995814      46.144500199999996      29.309019341131105
   352   2      25.344500199999999      36.499581399999997      38.323132141131104
   353   2      25.344500199999999      40.224421399999997      29.309019341131105
   354   2              10.4103086      36.499581399999997      44.243210941131103